600
 energy: -1018.346285605825 gnorm: 0.000320500066 xtb: 6.4.1 (afa7bdf)
H         0.20374009139850    3.03117146383107   -0.67804435022402
O         0.72678104455839    2.36288288143794   -1.17108514577975
H         1.66552186530000    2.49181264828434   -0.89726721119729
H        -0.07266243953003   -1.30555989770703    3.15288272071588
O         0.31939211936499   -0.60549015972720    2.60834287343857
H        -0.15843703857949    0.20802092251684    2.84125192445020
H        -2.39558281574488    2.41044864035144   -0.53564627442592
O        -2.18484721468988    1.94012488599582    0.28843823391366
H        -2.20089699159984    0.99220277689694    0.06368843874143
H        -4.65978003891021    0.54753241366942    2.18257090126161
O        -4.97672926964744   -0.38589838780001    2.19584983874274
H        -4.47182166480447   -0.86358731220778    1.52953869105141
H         0.06728879168569   -0.30797713950467    0.95324693477473
O        -0.13012187402346   -0.07163526830816    0.02625379811325
H         0.20909928547726    0.82501542869130   -0.09452965349380
H        -0.15074455498930   -3.57565883030539    3.78071340244883
O        -0.42974862123865   -2.74540796898793    4.20083093494719
H         0.21621707642008   -2.57458753938191    4.90271068596659
H        -4.88360010884286    2.53077743300814    1.33006516200698
O        -4.24413338115702    2.12149642714491    1.94500457796396
H        -3.40136380731120    2.10376407682565    1.43227022937536
H        -3.24587122922506    3.89733311903195   -2.21198631860655
O        -2.50816703035833    3.30057010091027   -1.98085728228491
H        -2.14958181297951    3.01258981423027   -2.84042693290496
H        -0.12148172663138   -3.80435988192592    0.50591428851638
O         0.21838280846845   -2.98675269636412    0.92360674884089
H        -0.56904451024409   -2.50020003214220    1.23510697352930
H        -2.37455530690212   -1.53772437745799    2.47118219053286
O        -2.18548485926466   -2.00410012718499    1.63047878720415
H        -2.44367578215322   -1.41725601429197    0.90066950278509
H         2.07617205458077   -1.44331172663950   -1.11908570448502
O         2.30793509656379   -1.69597493931383   -0.20161090315205
H         1.51870208697839   -2.12344352901054    0.18236247088750
H        -1.38810366743705    1.82527079368911    1.91246029289220
O        -1.47991652126909    1.42780121041719    2.78857278322550
H        -1.46550788722103    2.14025022404383    3.45342946865337
H         0.21209339101112   -2.70348422918902   -1.56775889012870
O        -0.54352162492153   -2.09188768239366   -1.62279170228447
H        -0.36438230959892   -1.36534127154163   -0.98899261851794
H        -3.43331834647167   -2.92565328270467   -0.38942719820539
O        -2.71585577260434   -3.41779150938818   -0.80980796016581
H        -2.00580619789133   -2.78706415001412   -1.02824997792570
H         2.77514590975059    0.13002068107886    2.93513468221994
O         2.87431603403519   -0.05227091144684    3.89687710125208
H         2.96548175686547    0.84073038958112    4.30131409192263
H        -3.52714419548701    6.38004094930054   -0.54406673528323
O        -3.28880698611043    7.04251108687297   -1.24441634806357
H        -3.14712588409631    7.88771176170435   -0.77427109246166
H         3.90461605445548    0.58470496931267    1.18727959517504
O         2.95409531377141    0.40282316849929    1.30332548210127
H         2.71699929736070   -0.34966746439324    0.72399716327380
H        -5.77840922439637    0.84203351019362   -1.60431750041586
O        -4.86800121990503    1.16945415410748   -1.47809707807545
H        -4.97908763463757    1.99804886050867   -0.96680883910378
H        -1.20979984353996    5.39802349225314    2.20974563283670
O        -1.83455227357755    4.65068179140971    2.09320518808940
H        -1.91239611029246    4.23222348699406    2.95581872081588
H         3.49596280024654    2.76353513532448    0.42590688361217
O         3.24807293247798    2.72052168716997   -0.51325973089701
H         3.58078960159586    1.87789249676228   -0.86354160851019
H         1.49498582020526   -4.69734771075920   -2.24815669824523
O         1.55942228403416   -3.91994788148911   -1.67522804641958
H         2.35393566751426   -3.45869604402185   -2.02640360315068
H        -0.91873475911133   -0.08557875811283   -2.54715041725726
O        -0.28460442587429    0.56681410665822   -2.87146752794776
H        -0.02425762922470    1.14944052731554   -2.13472764000861
H         1.70267664882375   -4.68526844387755   -0.17664937402410
O         1.80972316756781   -5.32217186630196    0.56608651926600
H         1.34631505051829   -6.13341740993607    0.27029602098902
H        -1.22299996948907   -3.26635418313200   -2.87809885770790
O        -1.04944100738454   -3.94998457003104   -3.53859216761091
H        -0.92303727128081   -4.79673871080967   -3.06928525269398
H        -2.77861509201073    3.31015457922190    4.70451408889331
O        -1.79736443547896    3.30764862776082    4.67058098101057
H        -1.50457141406387    2.90605131607882    5.50691908528841
H         0.96380646910784    5.03612332180665    4.07572612985815
O         0.01770479767174    5.26822273773794    4.12788705127372
H        -0.45414096929102    4.46499383475108    4.38584108369711
H        -1.72695254817181   -4.65065422205653   -0.36934723260695
O        -0.96183892647969   -5.19148473646468   -0.08435613215041
H        -1.30943986544732   -5.87789177253454    0.49440992022734
H        -3.91551610256642    5.83145904592421   -2.59893155778256
O        -4.26620980292557    4.99729081109176   -2.92860251089410
H        -4.11114473516895    4.96223707907158   -3.89674992787388
H        -2.42754909869809   -3.68874917777696    1.93799832361674
O        -2.44587322488941   -4.59293048622687    2.31389844065545
H        -1.50608551785026   -4.83076189359549    2.45477717064267
H        -4.69219012313068   -2.98075170671420   -2.89724190963384
O        -3.83984167528614   -3.21368436746806   -3.30351636835736
H        -3.50870704548271   -4.00698468792568   -2.83782485991944
H         0.34157789364814    1.37854188624058    4.61560525017562
O         0.84757468462182    2.13859178046775    4.28171172174878
H         0.89620719096634    2.79777465534135    4.98838694279892
H        -4.65169980532398   -5.17075459112225   -1.56881892213050
O        -5.35366361347047   -4.81729292505458   -0.99526665845640
H        -5.14046908463081   -5.17126272752628   -0.11095256847205
H         2.33040854607790   -6.48286257670399   -4.03648842303890
O         1.99314335782057   -6.15383716814425   -3.18314981150015
H         2.42754732989175   -6.72730066098495   -2.51959761976047
H         0.47007720638546   -3.37992095584037   -4.00367190591620
O         1.27278953363014   -3.01315655623968   -4.42698127082910
H         0.95324500355587   -2.64171919754276   -5.27550572531171
H         1.96691538950490   -1.75176440925687    2.98340646746635
O         2.12213331689005   -2.68274018319011    2.76641922976555
H         1.43629180153100   -2.89655416497501    2.09945025917537
H        -3.01199761721893   -1.80998265670121   -3.20845990091426
O        -2.58991968842128   -0.92342644429696   -3.14386303737694
H        -3.24559803290805   -0.27795992935567   -3.46349474018328
H        -3.18848169858808    4.97597648827724    1.07933116467557
O        -3.97023902359872    5.34922769015164    0.62476415489585
H        -4.38547713612976    5.90717364268142    1.33082117450509
H         0.87829516050059    2.25463874895373    2.59147517945367
O         0.97915870135628    2.24969907899608    1.62025914072924
H         1.70630404967492    1.62666015276988    1.45623492635280
H         0.19224836245422    5.65699935742526   -0.75879360551155
O         0.71368011529894    6.31888105139417   -1.26786745667389
H         0.85569880278026    7.11882283904638   -0.71229263386481
H         0.34487784329749    7.03713039107167    2.58998735085159
O        -0.01731416850417    6.65637142102769    1.77276860679218
H         0.64678085431439    5.98580725248173    1.51143495964046
H        -2.47759293505931    0.21625352860272    3.34191049567354
O        -2.69928200108866   -0.59773738678512    3.84699366270018
H        -1.93871736834984   -0.63695550541014    4.46869050977200
H        -0.89160611311430    0.55568909316316    6.02616103938353
O        -0.61754630214068    0.03609809643458    5.25183451384271
H         0.09608066856311   -0.56719655835815    5.53862853787776
H         0.71300966588764   -4.99349978938158    1.98255859476435
O         0.17071411109473   -5.10285814508592    2.78703655542864
H         0.31537855740911   -6.02338345938632    3.05947346534850
H        -2.11538565289824   -8.08803396507560    0.45134584373842
O        -1.79308314396544   -7.59987796963236    1.23645634986231
H        -2.57943062349725   -7.28840239768971    1.69227112627924
H        -0.37779948249913    6.86364235892710   -2.32624420096273
O        -1.12444359941288    7.28328023696216   -2.82548721307350
H        -1.91426876260849    7.15690954743279   -2.26164943912913
H        -1.11147267745587    4.31001227205531    0.57376586548348
O        -0.73864969638354    4.37097096347571   -0.32237909897807
H        -1.44523564244154    4.12868006002362   -0.95465114575900
H        -4.40733219636180    2.74820951606150    3.50730199214024
O        -4.40588567339738    2.91881174803580    4.47185310572635
H        -4.48905427751236    2.03582600682896    4.88112149101917
H         2.02704550244980   -3.58085635937437    4.24614411544473
O         1.96347797200861   -4.05301239785259    5.09943329337284
H         2.47031495823513   -3.51603116080910    5.72999418850048
H         4.69059739200033   -3.19409910380814    0.84083936226385
O         4.53011763337059   -3.11881498271011   -0.12569123979290
H         3.67121307022201   -2.64147739405425   -0.20927133560153
H        -2.72015319725168   -0.74856529475757   -1.35072812316357
O        -3.04759038265758   -0.47847634367809   -0.47634743479018
H        -3.84812115084246    0.04724071562109   -0.68332719737048
H        -1.61427224312663   -0.76180541337016   -4.63033965692328
O        -1.10728504413354   -0.54609435844188   -5.43430681072124
H        -0.39755514895350    0.05055113430083   -5.14917469792395
H         1.79748261332498   -1.71542571116281   -3.37586042074670
O         1.88971378514889   -0.96845768548911   -2.75294223493882
H         1.11218399404508   -0.39153522132900   -2.88399524857256
H         3.66582652726712   -3.12142148516076    2.55234524417674
O         4.62486878435194   -3.35037938971037    2.47909450185183
H         4.67980984115262   -4.31041690034813    2.60634888068678
H         3.42915813600669   -6.12066966216142    3.12547452171406
O         3.78475733509567   -5.92010969500054    2.22517228123348
H         3.04723154220602   -5.57448428136870    1.68225626682555
H        -3.34169023808971    1.61005067268743   -4.17719524552399
O        -4.18661314168426    1.13944146380935   -3.98643442963437
H        -4.40407850930082    1.28523089186382   -3.02976207882352
H        -5.08059266225714    4.14761603908702    0.06648327560878
O        -5.51907404579826    3.28147736535350   -0.03657685842199
H        -6.44952142477319    3.40049428140719   -0.31828006395018
H         6.73638112162738   -1.18246944589838   -1.36203670741870
O         5.96428359131256   -1.03269640023199   -0.81004829061610
H         5.54522988362874   -1.90038921370627   -0.61238160519565
H         4.59631796131880   -3.16940619342295   -2.46901926438574
O         3.72837874076631   -2.99838848609955   -2.88496516396456
H         3.73186653599358   -3.61719227858446   -3.64108654941599
H         4.43790946615769   -2.29195085012305    5.62290836199622
O         4.09511397155104   -2.75726474002331    6.41624249567132
H         4.42996751802454   -3.66235893939535    6.33472925719348
H        -0.75208221602439    6.33945481113872    5.07450025636933
O        -1.34878321597277    6.91539607956750    5.61248333944819
H        -1.36236343007382    7.79231122974636    5.17072426296401
H         4.70082641951103   -0.13673660985655   -1.46566712453532
O         3.93342236486012    0.40554626508383   -1.72870456926234
H         3.24095858576543   -0.19518175179297   -2.05849875139674
H        -0.74090532054914    4.52262703388106   -4.03750412903560
O        -1.52360779251154    5.06557654557857   -4.24580017989837
H        -1.37224278095053    5.93236021629576   -3.82346683026737
H         0.66147252631464    3.20337132618110   -2.65806476700201
O         0.66856987486085    3.57975454095449   -3.56673951355750
H         0.71593548530905    2.81606499852975   -4.15192611665099
H        -5.38098838646124   -5.19301466314652    1.79662958642650
O        -4.68431030436643   -5.78788654187696    1.44157570080303
H        -3.84379489517926   -5.37180441263713    1.71199850777740
H         7.88318881669854   -1.69155571956044   -4.03323666893537
O         7.62557451309223   -1.37806106259889   -3.13362453753825
H         7.13862488626830   -0.53425475188182   -3.29029724657584
H         3.70307893595907   -5.07374737512226   -5.28833669347494
O         4.46570122421576   -4.70026828010107   -4.80756052048119
H         4.85023676686249   -5.41112383670835   -4.26160943289329
H        -3.78192096716468    0.01970745791887    4.93577923781605
O        -4.38249827525300    0.48388045875585    5.56848893048820
H        -5.04272225389340   -0.17413097933380    5.86045757045874
H         3.46719552396220   -5.94271674163697   -0.51774868825101
O         4.33982386800163   -5.69526453341912   -0.83556662941433
H         4.41583405180261   -4.73288443142649   -0.69200003983581
H         5.00218034951448   -0.33710598146117   -4.16015096222453
O         4.46687757517557   -1.04861185539821   -4.54979844255140
H         4.14097395095606   -1.63178655228550   -3.83170443740868
H        -1.17082862435471    1.57096241702117   -3.93615996277327
O        -1.82135142062048    2.19142612895251   -4.32195152926419
H        -1.46386279741637    2.52282157225392   -5.16838475179237
H         4.88737962784242   -6.32269351918471   -2.31301226766247
O         5.21996110917860   -6.64803867539024   -3.17863845222253
H         6.03820629068588   -7.12852953630639   -2.99210693736285
H         8.74226351712202   -5.09295154885613   -2.91697444056489
O         8.05145518971375   -5.51036655739295   -2.35785126335224
H         8.08570269936808   -6.46776695052150   -2.45977689697946
H         2.34006609831884    4.71993888570223    0.45090577782471
O         1.76091131808857    4.70223121013138    1.22214763232178
H         1.40351373831727    3.78195209945233    1.30014292307887
H        -4.41302239669431   -2.63305952853118    4.23337844004731
O        -5.30705768607034   -2.29367493418428    4.03097566106059
H        -5.17029681446169   -1.51272160547947    3.45516432375066
H        -5.84403018618848   -3.19518764731047    1.31964506965269
O        -6.30664265294400   -3.75207610703688    1.98825978313569
H        -6.11809775087534   -3.31629338624562    2.83863027864737
H         1.68883772192583    3.47113015069774    6.86219138587018
O         1.06571680256724    3.98634122910295    6.32821742908223
H         0.28284029682347    4.13965025116912    6.89989425999542
H         5.00340546469618   -2.16793275116510    3.61706326834765
O         5.02386262977744   -1.44942649892456    4.28089597846693
H         4.21193634776730   -0.89328903042138    4.12411104698941
H         2.39311098061521   -5.57499826114788    4.84075733014967
O         2.77305974854441   -6.45898654810467    4.58106428758103
H         2.02794738751755   -7.04054560207166    4.40744468283331
H         2.25833129745390   -4.51851604684197   -6.78843895392506
O         2.08936587835997   -5.00643389613144   -5.97250291784406
H         1.82488514150107   -4.31486350489980   -5.31736255847064
H         6.44166635172196   -4.10354871922766   -0.50158205970401
O         7.19507863115014   -4.50624621629055   -0.03835987436245
H         7.70241850883013   -4.92903079370091   -0.75909231230216
H        -1.72294263333033    4.49267102125280    7.70069530980396
O        -0.82405102074200    4.59106276938330    8.08597063818630
H        -0.64323412299450    5.55025647228698    8.10993509818368
H        -5.11773239648846    5.69185910000686   -5.59697446629880
O        -4.51002824124717    4.92844059572920   -5.61705803161407
H        -3.75286932848553    5.14276880042050   -6.18319465732691
H         3.28214232518864   -2.53027014827430   -8.43593519507739
O         3.19457238711866   -3.06255277039429   -7.63438136544536
H         4.07124981627144   -3.03814391133355   -7.20563521150205
H        -0.65907589628584    8.82638062500855   -2.28054793939509
O        -0.53607353989194    9.65519712707578   -1.76223492251585
H         0.22624705024400    9.48111331855999   -1.18543873324789
H         2.06877299236702   -0.91051335417087    5.21251858424150
O         1.49613317590849   -1.43624172606261    5.80023430143754
H         1.59011870859418   -1.09061711584300    6.69732074691310
H         5.20688143007831   -2.02624228821706   -5.69233858406096
O         5.55270099276928   -2.79268015879294   -6.21436089786050
H         5.27918788012540   -3.58244105601013   -5.69633810373436
H         5.69744549922064   -5.21328139172274    4.68807258103936
O         5.17553783592066   -5.12829081184654    5.51496281601092
H         4.45395914635618   -5.76024476531763    5.42966797526702
H        -3.97196057703242    1.14876913273359    7.00795353101551
O        -3.77977503745252    1.62492062609312    7.85158069528672
H        -4.65587992738071    2.01056159948552    8.11236297165163
H        -1.85032664654845    9.61483337387399   -0.74824057982069
O        -2.71062718374445    9.48856134724678   -0.27349567945053
H        -3.32202481577152   10.11665566863818   -0.66165256598235
H        -5.94748122065165    4.68864484455224   -2.93889942936704
O        -6.85617413461082    4.56929294268688   -3.28294462250655
H        -6.76570037248669    3.86656034671380   -3.95966806873851
H         0.09619559756076   -7.06483361037401   -1.13977958758750
O         0.56066847339787   -7.50042800353649   -0.39208833246850
H        -0.11833509133469   -7.69507897981127    0.25701010268615
H        -7.63642724711810    3.79055659578093   -1.97333708129944
O        -7.89768321311473    3.20394809044704   -1.23294095279811
H        -7.75454881410231    2.29509533389523   -1.57203803744526
H         3.97605009652054   -0.88973952811530    6.98715062875212
O         3.98449679658743    0.07442371173429    6.97769560191553
H         4.79674542836526    0.36427852852641    6.54595309539708
H         2.25942265409575    5.79625234477689   -1.18143097256470
O         3.19497129248340    5.50356565366963   -1.06711056889664
H         3.37155786997773    4.96316275225471   -1.86012199229449
H         6.55238262349213   -5.92934279154574    0.67416027818152
O         6.18420871699434   -6.66560351698070    1.20824209596293
H         5.27951508161849   -6.38887429376085    1.43499145833354
H        -3.86656753085647    4.73239836181181    7.78039682632935
O        -3.29991069733694    4.26941299267570    7.12155555324582
H        -3.49325218077365    3.32601718026454    7.23237336526160
H         5.76465020955033   -7.94558540004411    0.14122150507662
O         5.47741579116717   -8.63267234272154   -0.49663329748138
H         4.64777286621568   -8.30774992988603   -0.89035909589776
H        -0.55529777860094    2.04516310443963    7.69355251475877
O        -1.18865842680203    1.98013854761449    6.95863784549867
H        -2.05705791471114    1.83867126601042    7.35543403331559
H        -6.38115791685887   -0.12067376391546    1.06420242501906
O        -6.70166425074632   -0.20470182837022    0.15144585935818
H        -7.62038537522729   -0.47549937416726    0.16988819860568
H        -5.37056664550545   -3.06385899163630   -0.58550952682369
O        -5.11829609402710   -2.36144581338319    0.04000095570523
H        -5.68836014849596   -1.58863834908085   -0.14778026789403
H         4.31871239850933    5.57839295141968    0.31822042072543
O         4.65285576631073    5.67956593980360    1.22328694782358
H         3.95831547653288    6.18982189421909    1.67552072524491
H        -9.04293884941439   -1.74563410405526   -2.25031003287634
O        -8.49491244983594   -1.54376459878482   -1.46449185702926
H        -8.62198019814166   -2.28014015381267   -0.82644635023311
H        -5.52425688396235    3.46901666129759   -5.52733954786144
O        -6.04144298834660    2.75849149417583   -5.11218846588666
H        -5.37473765810487    2.17327834765749   -4.69827525956398
H         3.18079511738001   -0.89050458709917   -5.65452561251051
O         2.32487099182257   -1.01075718743666   -6.12029831408029
H         2.41034169416351   -1.86007565266366   -6.59316588805749
H         8.11465358353482   -1.35194421848558   -6.02917681108400
O         8.12312074733146   -2.21579956691969   -5.57247275399863
H         7.26685172045509   -2.61590829481713   -5.82255023994457
H         7.62077408213075    0.98832882152709   -6.31086982516073
O         7.43185143825565    0.13991666254338   -6.72389452157849
H         6.45049281263145    0.08977707554021   -6.75973695001494
H        -7.85907218121767   -3.69183409539435    0.93371933544861
O        -8.53764976922964   -3.58536093354760    0.24943324903361
H        -8.43942894404748   -4.34506436310108   -0.35190296978572
H        -2.40646011466035    8.73793113192376    1.29068230229735
O        -2.25540299156875    8.14980019179950    2.04398952373414
H        -1.48524994880533    7.59665605603811    1.82124033381295
H        -4.44247408880014    6.43766302033957    3.49591266389372
O        -4.61296649433695    6.86319835308958    2.63922719396685
H        -3.84966748714911    7.44919021395396    2.49916642411358
H         3.40123722116118    3.44527288155933   -3.57838294529734
O         3.24794538974578    4.41459925454535   -3.48569356644784
H         2.28300422770468    4.47913208097549   -3.59283155553287
H        -6.11507504220720   -1.60669549865788   -3.43951553375696
O        -6.19779781577646   -2.18562092616151   -2.65527006294924
H        -6.98168072021404   -1.87818104824712   -2.14660011695780
H         6.46979068147578    1.05244919983457    4.73882186640102
O         6.07588738177709    1.59135800302441    5.44173556190141
H         6.26340549247050    2.51000246342427    5.15024641121650
H         1.36158636757612    1.72004394967978   -5.82277653862327
O         1.16730515734071    1.12463154479262   -5.06811329833459
H         1.53061179196093    0.26137380366779   -5.33755267176080
H        -2.48672660564622    2.96853211066117   10.48412829546931
O        -2.27450434600883    2.06080606980573   10.21123645736195
H        -2.87226635926661    1.86078374452863    9.47900516447569
H         7.62937847749392   -0.49574311436057    3.08329905158342
O         6.87916757689537    0.07970159425807    3.25194900346096
H         6.18708713443064   -0.52070192981756    3.63164524118002
H        -5.65793428743096   -8.05407893752244   -0.69539736382438
O        -4.92292559634356   -8.12247775222511   -0.04912881171674
H        -4.92662736598191   -7.30494336100209    0.47246658730514
H        -5.17729116331665   -0.12033020636770   -4.71325810017126
O        -5.79430524591347   -0.83229875537970   -4.95264160608607
H        -6.63256950990681   -0.39082661116211   -5.15069994952194
H         1.88953097951628   -0.20127005290909   -7.51437040343999
O         1.68777939216625    0.27018085558978   -8.35848129729900
H         2.26434683733741   -0.13539295311769   -9.01146775153728
H         4.87158437402357   -1.39645475713388   -9.30341453784326
O         3.94625389454561   -1.16820693647529   -9.58562309468958
H         3.92611080210541   -1.28611429675039  -10.53465485683669
H         7.56523559622195   -2.56835642732584    4.20094262505876
O         7.71293023839066   -2.60576562915142    3.24165218628536
H         7.21857398828975   -3.39613012148351    2.97022611001359
H         6.72239422435013   -5.89360267036270    2.68746433855732
O         6.78429017379705   -5.21791219628527    3.38811294069659
H         7.66013359170138   -5.30296684222059    3.80604261538585
H        -1.81965406856629    8.94997928363551    3.49440181262580
O        -1.57188107464912    9.25515715853870    4.39256863270328
H        -2.42063791247684    9.38773193890244    4.84809111509936
H        -7.39023827895478    1.56581629042320   -5.24895315338841
O        -7.96492798501396    0.82174268364739   -5.00339007856491
H        -8.86668092429456    1.22130768173194   -4.92747629009296
H         6.92544770470013   -1.08639488797419   -8.40425777269139
O         6.34355270811503   -1.80764723141407   -8.66751200344466
H         6.11584501797112   -2.25713769240475   -7.83530092964043
H        -1.67723176703198    6.23884659307823   -7.02396374790429
O        -2.07494753410143    5.41364331308743   -6.74996184038113
H        -1.82634109594104    5.28330919784548   -5.78628710358515
H         0.00313671142832    3.31595430096025    9.02295473736186
O         0.20022045285476    2.39631302546923    9.27849862074062
H        -0.59799877853590    2.13245598057809    9.78528811083075
H         6.75661280596246   -2.78072818993433   -2.70402167292355
O         6.22653516217436   -3.52490966152356   -2.36229209344090
H         6.69529026778402   -4.33571865712845   -2.60837018350929
H        -4.07753984598143   -3.07475825617557   -4.94016483080018
O        -4.23172847065799   -2.96255056800832   -5.90502471735902
H        -4.77929656238835   -2.16972834967049   -5.96148071297601
H         1.98253504327659    2.18848749904579    8.46527304107097
O         2.64598956135917    2.30060365327605    7.77477410397460
H         3.06861424499869    1.43047300102766    7.65999038501908
H        -6.90700425190181   -5.20147310654446   -1.39046135021916
O        -7.82259367370195   -5.47124483263798   -1.63571711165837
H        -7.95640465956819   -5.06913953625610   -2.51884834320407
H        -3.82554871072964    5.25993937110857    5.69664353757221
O        -3.79296690922041    6.02808786631782    5.10546390203724
H        -2.85899796223113    6.32257443704692    5.19921471856495
H        -7.88444837238223    0.08774652952438   -1.96351759499739
O        -7.39488997002156    0.81121615581972   -2.37755407055933
H        -7.62331845056393    0.79959768779307   -3.33075105072934
H         5.83857047072092    0.13086197118627    0.41203576299511
O         5.61670939420214    0.85276270210810    1.03247769148404
H         6.12710748656486    0.65816877975235    1.84544908152333
H        -6.21314323830568    3.31588073251794    7.39717629143557
O        -6.08512076416267    2.79804173594138    8.22605944917857
H        -6.68536522116334    2.03664560468906    8.13822121931259
H         2.27962993717737   -8.07363356547768   -0.83700663163446
O         2.95611776977871   -8.06112350406479   -1.53374283999177
H         2.73112106125561   -8.77572930436097   -2.14621178930359
H        -2.74485638872900   -3.96400657809036   -6.19335021714461
O        -1.99111855297915   -4.53005567042613   -5.96141118929719
H        -1.71463521993944   -4.23789270891492   -5.06450005835100
H        -5.64208297287352    3.76519002068547    5.30991589020148
O        -6.29104219970714    4.16202411847881    5.92709339174979
H        -6.12749904106388    5.10606612376219    5.91315952998494
H        -1.01806463232591   -7.11522207248413   -3.15806408998615
O        -0.54557665657960   -6.44505819301956   -2.63040603434502
H         0.36190456876420   -6.37602068269634   -3.01133425355554
H         4.44646709280121    2.02026415336786    5.12865399067839
O         3.50474386571233    2.25931007290126    5.00857073965676
H         3.12065546661874    2.27617731345649    5.89053718919249
H         4.11148796139922    4.66149647858364    6.29949821878345
O         4.19216998150346    5.39135403692605    5.68105078565864
H         3.62460307491585    5.15021261898008    4.91029559063733
H         2.76640745824868    3.62051930326250    3.92214649391442
O         2.58878434105815    4.56052181373484    3.75568770993929
H         2.46898660690246    4.65850953470644    2.78923788889343
H         9.39427267022224    0.21094553703844   -1.07175740266087
O         8.58846948753583    0.37441781879140   -0.57803682873808
H         8.41247643338066   -0.44412809786857   -0.08450228036534
H        -2.09827828960816    5.32768658763995   10.65017161913747
O        -2.82019205640686    4.69922280008676   10.88206672903946
H        -3.03841542643202    4.87709915350171   11.79714966839754
H         7.97403202661835   -3.00848306827349    0.32917819382287
O         8.39547273147507   -2.16181008601811    0.58376409803296
H         8.32941394077324   -2.15616873216960    1.54605975472226
H         5.37229659105963    3.66776121892064    3.52376954531210
O         6.02872222317791    3.93367490294416    4.18961600495871
H         5.61602916299049    4.65186900067048    4.69113696589584
H        -4.20664339765345    5.02916464432244    9.78488344950478
O        -4.83995134854818    5.17963246914406    9.06295767792982
H        -5.45168085511765    4.43089918522920    9.06103640395166
H        -7.01067653351103   -3.47885364050907   -3.48069295487230
O        -7.63126667066671   -4.09099933727873   -3.92859816146881
H        -7.11033600908913   -4.53347663323562   -4.63062544835452
H         0.03022763835838    6.13602899896796   10.76946488430953
O        -0.83439097844841    6.46744873836965   10.52234111431842
H        -0.71886234024381    6.89741117964994    9.65569012795754
H         2.58933116909707    1.49445423280556   -4.10511272066108
O         3.46786445614418    1.84724106695419   -3.86705490373724